<?xml version="1.0" encoding="UTF-8"?>

<!-- generated on 2023-06-12 10:44:28 by Eclipse SUMO GUI Version 1.15.0
<configuration xmlns:xsi="http://www.w3.org/2001/XMLSchema-instance" xsi:noNamespaceSchemaLocation="http://sumo.dlr.de/xsd/sumoConfiguration.xsd">

    <input>
        <net-file value="C:\Users\lendl\Documents\smart_traffic\sumo\25-3-lendl-ver.net.xml"/>
        <route-files value="C:\Users\Lendl\Documents\smart_traffic\sumo\003_demand_profile_4\003\4-3-test-demand-vianetedit_003.rou.xml"/>
        <additional-files value="C:\Users\Lendl\Documents\smart_traffic\sumo\003_demand_profile_4\003\../edgedata.add.xml"/>
    </input>

    <output>
        <output-prefix value="003/"/>
        <summary-output value="C:\Users\Lendl\Documents\smart_traffic\sumo\003_demand_profile_4\003\../summary_003.xml"/>
        <tripinfo-output value="C:\Users\Lendl\Documents\smart_traffic\sumo\003_demand_profile_4\003\../tripinfo_003.xml"/>
    </output>

    <time>
        <begin value="0"/>
        <step-length value="0.5"/>
    </time>

    <processing>
        <extrapolate-departpos value="true"/>
        <route-steps value="200"/>
        <no-internal-links value="False"/>
        <time-to-teleport value="300"/>
        <time-to-teleport.highways value="0"/>
        <eager-insert value="False"/>
    </processing>

    <report>
        <verbose value="true"/>
        <no-warnings value="False"/>
        <log value="C:\Users\Lendl\Documents\smart_traffic\sumo\003_demand_profile_4\003\../iteration_003.sumo.log"/>
        <no-step-log value="true"/>
    </report>

    <traci_server>
        <remote-port value="49740"/>
    </traci_server>

    <random_number>
        <random value="False"/>
    </random_number>

</configuration>
-->

<tripinfos xmlns:xsi="http://www.w3.org/2001/XMLSchema-instance" xsi:noNamespaceSchemaLocation="http://sumo.dlr.de/xsd/tripinfo_file.xsd">
    <tripinfo id="f_10_0_CAR.0" depart="0.00" departLane="1076383725_1" departPos="5.10" departSpeed="16.67" departDelay="0.00" arrival="35.00" arrivalLane="26296778#2.51_1" arrivalPos="231.04" arrivalSpeed="16.37" duration="35.00" routeLength="491.11" waitingTime="0.00" waitingCount="0" stopTime="0.00" timeLoss="4.06" rerouteNo="0" devices="tripinfo_f_10_0_CAR.0" vType="CAR" speedFactor="1.00" vaporized=""/>
    <tripinfo id="f_1_0_BUS.0" depart="3.50" departLane="780157087#0_1" departPos="12.10" departSpeed="16.50" departDelay="3.50" arrival="36.00" arrivalLane="780157088.34_1" arrivalPos="200.15" arrivalSpeed="16.58" duration="32.50" routeLength="420.87" waitingTime="0.00" waitingCount="0" stopTime="0.00" timeLoss="5.64" rerouteNo="0" devices="tripinfo_f_1_0_BUS.0" vType="BUS" speedFactor="1.00" vaporized=""/>
    <tripinfo id="f_10_0_MOTORCYCLE.0" depart="1.50" departLane="1076383725_1" departPos="2.30" departSpeed="16.58" departDelay="1.50" arrival="37.00" arrivalLane="26296778#2.51_1" arrivalPos="231.04" arrivalSpeed="16.29" duration="35.50" routeLength="493.91" waitingTime="0.00" waitingCount="0" stopTime="0.00" timeLoss="4.02" rerouteNo="0" devices="tripinfo_f_10_0_MOTORCYCLE.0" vType="MOTORCYCLE" speedFactor="1.00" vaporized=""/>
    <tripinfo id="f_1_0_CAR.0" depart="5.00" departLane="780157087#0_1" departPos="5.10" departSpeed="16.38" departDelay="5.00" arrival="38.00" arrivalLane="780157088.34_1" arrivalPos="200.15" arrivalSpeed="16.38" duration="33.00" routeLength="427.87" waitingTime="0.00" waitingCount="0" stopTime="0.00" timeLoss="5.43" rerouteNo="0" devices="tripinfo_f_1_0_CAR.0" vType="CAR" speedFactor="1.00" vaporized=""/>
    <tripinfo id="f_1_0_MOTORCYCLE.0" depart="6.00" departLane="780157087#0_1" departPos="2.30" departSpeed="16.41" departDelay="6.00" arrival="39.50" arrivalLane="780157088.34_1" arrivalPos="200.15" arrivalSpeed="16.51" duration="33.50" routeLength="430.67" waitingTime="0.00" waitingCount="0" stopTime="0.00" timeLoss="5.68" rerouteNo="0" devices="tripinfo_f_1_0_MOTORCYCLE.0" vType="MOTORCYCLE" speedFactor="1.00" vaporized=""/>
    <tripinfo id="f_10_0_TAXI.0" depart="4.00" departLane="1076383725_1" departPos="5.10" departSpeed="16.54" departDelay="4.00" arrival="40.00" arrivalLane="26296778#2.51_1" arrivalPos="231.04" arrivalSpeed="16.65" duration="36.00" routeLength="491.11" waitingTime="0.00" waitingCount="0" stopTime="0.00" timeLoss="5.08" rerouteNo="0" devices="tripinfo_f_10_0_TAXI.0" vType="TAXI" speedFactor="1.00" vaporized=""/>
    <tripinfo id="f_8_0_CAR.0" depart="0.00" departLane="591107291#0_0" departPos="5.10" departSpeed="16.67" departDelay="0.00" arrival="41.00" arrivalLane="780157088.34_0" arrivalPos="200.15" arrivalSpeed="16.37" duration="41.00" routeLength="636.67" waitingTime="0.00" waitingCount="0" stopTime="0.00" timeLoss="2.65" rerouteNo="0" devices="tripinfo_f_8_0_CAR.0" vType="CAR" speedFactor="1.00" vaporized=""/>
    <tripinfo id="f_8_0_MOTORCYCLE.0" depart="1.50" departLane="591107291#0_0" departPos="2.30" departSpeed="16.52" departDelay="1.50" arrival="41.50" arrivalLane="780157088.34_1" arrivalPos="200.15" arrivalSpeed="16.05" duration="40.00" routeLength="639.47" waitingTime="0.00" waitingCount="0" stopTime="0.00" timeLoss="1.91" rerouteNo="0" devices="tripinfo_f_8_0_MOTORCYCLE.0" vType="MOTORCYCLE" speedFactor="1.00" vaporized=""/>
    <tripinfo id="f_10_0_TRUCK.0" depart="5.50" departLane="1076383725_1" departPos="7.20" departSpeed="16.40" departDelay="5.50" arrival="43.50" arrivalLane="26296778#2.51_1" arrivalPos="231.04" arrivalSpeed="16.53" duration="38.00" routeLength="489.01" waitingTime="0.00" waitingCount="0" stopTime="0.00" timeLoss="7.07" rerouteNo="0" devices="tripinfo_f_10_0_TRUCK.0" vType="TRUCK" speedFactor="1.00" vaporized=""/>
    <tripinfo id="f_0_0_BUS.0" depart="0.00" departLane="780157087#0_0" departPos="12.10" departSpeed="16.67" departDelay="0.00" arrival="45.00" arrivalLane="4601641#0_2" arrivalPos="380.76" arrivalSpeed="16.56" duration="45.00" routeLength="735.43" waitingTime="0.00" waitingCount="0" stopTime="0.00" timeLoss="0.34" rerouteNo="0" devices="tripinfo_f_0_0_BUS.0" vType="BUS" speedFactor="1.00" vaporized=""/>
    <tripinfo id="f_8_0_TAXI.0" depart="3.50" departLane="591107291#0_0" departPos="5.10" departSpeed="16.27" departDelay="3.50" arrival="45.00" arrivalLane="780157088.34_0" arrivalPos="200.15" arrivalSpeed="16.56" duration="41.50" routeLength="636.67" waitingTime="0.00" waitingCount="0" stopTime="0.00" timeLoss="3.17" rerouteNo="0" devices="tripinfo_f_8_0_TAXI.0" vType="TAXI" speedFactor="1.00" vaporized=""/>
    <tripinfo id="f_0_0_CAR.0" depart="0.00" departLane="780157087#0_1" departPos="5.10" departSpeed="16.67" departDelay="0.00" arrival="45.50" arrivalLane="4601641#0_3" arrivalPos="380.76" arrivalSpeed="16.59" duration="45.50" routeLength="736.73" waitingTime="0.00" waitingCount="0" stopTime="0.00" timeLoss="0.62" rerouteNo="0" devices="tripinfo_f_0_0_CAR.0" vType="CAR" speedFactor="1.00" vaporized=""/>
    <tripinfo id="f_5_0_CAR.0" depart="0.00" departLane="1076383725_0" departPos="5.10" departSpeed="16.67" departDelay="0.00" arrival="46.50" arrivalLane="4601641#0_0" arrivalPos="380.76" arrivalSpeed="16.57" duration="46.50" routeLength="735.40" waitingTime="0.00" waitingCount="0" stopTime="0.00" timeLoss="2.37" rerouteNo="0" devices="tripinfo_f_5_0_CAR.0" vType="CAR" speedFactor="1.00" vaporized=""/>
    <tripinfo id="f_0_0_MOTORCYCLE.0" depart="1.50" departLane="780157087#0_0" departPos="2.30" departSpeed="16.64" departDelay="1.50" arrival="47.50" arrivalLane="4601641#0_2" arrivalPos="380.76" arrivalSpeed="16.01" duration="46.00" routeLength="745.23" waitingTime="0.00" waitingCount="0" stopTime="0.00" timeLoss="1.04" rerouteNo="0" devices="tripinfo_f_0_0_MOTORCYCLE.0" vType="MOTORCYCLE" speedFactor="1.00" vaporized=""/>
    <tripinfo id="f_0_0_TAXI.0" depart="1.50" departLane="780157087#0_1" departPos="5.10" departSpeed="16.35" departDelay="1.50" arrival="47.50" arrivalLane="4601641#0_3" arrivalPos="380.76" arrivalSpeed="16.43" duration="46.00" routeLength="736.73" waitingTime="0.00" waitingCount="0" stopTime="0.00" timeLoss="0.82" rerouteNo="0" devices="tripinfo_f_0_0_TAXI.0" vType="TAXI" speedFactor="1.00" vaporized=""/>
    <tripinfo id="f_5_0_MOTORCYCLE.0" depart="1.50" departLane="1076383725_0" departPos="2.30" departSpeed="16.61" departDelay="1.50" arrival="48.00" arrivalLane="4601641#0_0" arrivalPos="380.76" arrivalSpeed="16.31" duration="46.50" routeLength="738.20" waitingTime="0.00" waitingCount="0" stopTime="0.00" timeLoss="2.58" rerouteNo="0" devices="tripinfo_f_5_0_MOTORCYCLE.0" vType="MOTORCYCLE" speedFactor="1.00" vaporized=""/>
    <tripinfo id="f_3_0_CAR.0" depart="0.00" departLane="933952934#0_0" departPos="5.10" departSpeed="16.67" departDelay="0.00" arrival="48.50" arrivalLane="26296778#2.51_0" arrivalPos="231.04" arrivalSpeed="16.61" duration="48.50" routeLength="734.10" waitingTime="0.00" waitingCount="0" stopTime="0.00" timeLoss="3.13" rerouteNo="0" devices="tripinfo_f_3_0_CAR.0" vType="CAR" speedFactor="1.00" vaporized=""/>
    <tripinfo id="f_1_0_TAXI.0" depart="8.50" departLane="780157087#0_1" departPos="5.10" departSpeed="16.34" departDelay="8.50" arrival="49.00" arrivalLane="780157088.34_1" arrivalPos="200.15" arrivalSpeed="16.66" duration="40.50" routeLength="427.87" waitingTime="5.00" waitingCount="1" stopTime="0.00" timeLoss="13.02" rerouteNo="0" devices="tripinfo_f_1_0_TAXI.0" vType="TAXI" speedFactor="1.00" vaporized=""/>
    <tripinfo id="f_0_0_TRUCK.0" depart="4.00" departLane="780157087#0_0" departPos="7.20" departSpeed="16.64" departDelay="4.00" arrival="49.50" arrivalLane="4601641#0_3" arrivalPos="380.76" arrivalSpeed="16.66" duration="45.50" routeLength="734.63" waitingTime="0.00" waitingCount="0" stopTime="0.00" timeLoss="0.83" rerouteNo="0" devices="tripinfo_f_0_0_TRUCK.0" vType="TRUCK" speedFactor="1.00" vaporized=""/>
    <tripinfo id="f_3_0_MOTORCYCLE.0" depart="1.50" departLane="933952934#0_0" departPos="2.30" departSpeed="16.56" departDelay="1.50" arrival="50.00" arrivalLane="26296778#2.51_0" arrivalPos="231.04" arrivalSpeed="16.50" duration="48.50" routeLength="736.90" waitingTime="0.00" waitingCount="0" stopTime="0.00" timeLoss="3.34" rerouteNo="0" devices="tripinfo_f_3_0_MOTORCYCLE.0" vType="MOTORCYCLE" speedFactor="1.00" vaporized=""/>
    <tripinfo id="f_5_0_TAXI.0" depart="4.00" departLane="1076383725_0" departPos="5.10" departSpeed="16.41" departDelay="4.00" arrival="51.50" arrivalLane="4601641#0_0" arrivalPos="380.76" arrivalSpeed="16.53" duration="47.50" routeLength="735.40" waitingTime="0.00" waitingCount="0" stopTime="0.00" timeLoss="3.39" rerouteNo="0" devices="tripinfo_f_5_0_TAXI.0" vType="TAXI" speedFactor="1.00" vaporized=""/>
    <tripinfo id="f_1_0_TRUCK.0" depart="10.50" departLane="780157087#0_1" departPos="7.20" departSpeed="16.38" departDelay="10.50" arrival="53.00" arrivalLane="780157088.34_1" arrivalPos="200.15" arrivalSpeed="16.59" duration="42.50" routeLength="425.77" waitingTime="2.00" waitingCount="1" stopTime="0.00" timeLoss="15.70" rerouteNo="0" devices="tripinfo_f_1_0_TRUCK.0" vType="TRUCK" speedFactor="1.00" vaporized=""/>
    <tripinfo id="f_2_0_BUS.0" depart="6.00" departLane="780157087#0_0" departPos="12.10" departSpeed="16.48" departDelay="6.00" arrival="54.50" arrivalLane="1078018158_0" arrivalPos="293.94" arrivalSpeed="16.56" duration="48.50" routeLength="728.67" waitingTime="0.00" waitingCount="0" stopTime="0.00" timeLoss="5.13" rerouteNo="0" devices="tripinfo_f_2_0_BUS.0" vType="BUS" speedFactor="1.00" vaporized=""/>
    <tripinfo id="f_1_0_CAR.1" depart="12.00" departLane="780157087#0_1" departPos="5.10" departSpeed="16.47" departDelay="8.64" arrival="54.50" arrivalLane="780157088.34_1" arrivalPos="200.15" arrivalSpeed="16.36" duration="42.50" routeLength="427.87" waitingTime="1.00" waitingCount="1" stopTime="0.00" timeLoss="15.58" rerouteNo="0" devices="tripinfo_f_1_0_CAR.1" vType="CAR" speedFactor="1.00" vaporized=""/>
    <tripinfo id="f_3_0_TRAILER.0" depart="4.50" departLane="933952934#0_0" departPos="16.60" departSpeed="16.30" departDelay="4.50" arrival="55.50" arrivalLane="26296778#2.51_0" arrivalPos="231.04" arrivalSpeed="16.63" duration="51.00" routeLength="722.60" waitingTime="0.00" waitingCount="0" stopTime="0.00" timeLoss="6.51" rerouteNo="0" devices="tripinfo_f_3_0_TRAILER.0" vType="TRAILER" speedFactor="1.00" vaporized=""/>
    <tripinfo id="f_5_0_TRUCK.0" depart="5.50" departLane="1076383725_0" departPos="7.20" departSpeed="16.36" departDelay="5.50" arrival="55.50" arrivalLane="4601641#0_0" arrivalPos="380.76" arrivalSpeed="16.66" duration="50.00" routeLength="733.30" waitingTime="0.00" waitingCount="0" stopTime="0.00" timeLoss="6.20" rerouteNo="0" devices="tripinfo_f_5_0_TRUCK.0" vType="TRUCK" speedFactor="1.00" vaporized=""/>
    <tripinfo id="f_6_0_BUS.0" depart="7.50" departLane="1076383725_0" departPos="12.10" departSpeed="16.18" departDelay="7.50" arrival="56.00" arrivalLane="1078018158_2" arrivalPos="293.94" arrivalSpeed="16.65" duration="48.50" routeLength="769.29" waitingTime="0.00" waitingCount="0" stopTime="0.00" timeLoss="1.82" rerouteNo="0" devices="tripinfo_f_6_0_BUS.0" vType="BUS" speedFactor="1.00" vaporized=""/>
    <tripinfo id="f_1_0_CAR.2" depart="14.50" departLane="780157087#0_1" departPos="5.10" departSpeed="15.24" departDelay="7.79" arrival="56.00" arrivalLane="780157088.34_1" arrivalPos="200.15" arrivalSpeed="16.54" duration="41.50" routeLength="427.87" waitingTime="0.00" waitingCount="0" stopTime="0.00" timeLoss="14.69" rerouteNo="0" devices="tripinfo_f_1_0_CAR.2" vType="CAR" speedFactor="1.00" vaporized=""/>
    <tripinfo id="f_2_0_CAR.0" depart="7.50" departLane="780157087#0_0" departPos="5.10" departSpeed="16.37" departDelay="7.50" arrival="56.50" arrivalLane="1078018158_1" arrivalPos="293.94" arrivalSpeed="16.59" duration="49.00" routeLength="735.67" waitingTime="0.00" waitingCount="0" stopTime="0.00" timeLoss="4.84" rerouteNo="0" devices="tripinfo_f_2_0_CAR.0" vType="CAR" speedFactor="1.00" vaporized=""/>
    <tripinfo id="f_2_0_MOTORCYCLE.0" depart="8.50" departLane="780157087#0_0" departPos="2.30" departSpeed="16.42" departDelay="8.50" arrival="58.00" arrivalLane="1078018158_0" arrivalPos="293.94" arrivalSpeed="16.12" duration="49.50" routeLength="738.47" waitingTime="0.00" waitingCount="0" stopTime="0.00" timeLoss="4.88" rerouteNo="0" devices="tripinfo_f_2_0_MOTORCYCLE.0" vType="MOTORCYCLE" speedFactor="1.00" vaporized=""/>
    <tripinfo id="f_1_0_CAR.3" depart="15.50" departLane="780157087#0_1" departPos="5.10" departSpeed="13.97" departDelay="5.43" arrival="58.00" arrivalLane="780157088.34_1" arrivalPos="200.15" arrivalSpeed="16.52" duration="42.50" routeLength="427.87" waitingTime="0.00" waitingCount="0" stopTime="0.00" timeLoss="15.39" rerouteNo="0" devices="tripinfo_f_1_0_CAR.3" vType="CAR" speedFactor="1.00" vaporized=""/>
    <tripinfo id="f_6_0_MOTORCYCLE.0" depart="8.50" departLane="1076383725_0" departPos="2.30" departSpeed="16.12" departDelay="8.50" arrival="59.00" arrivalLane="1078018158_1" arrivalPos="293.94" arrivalSpeed="16.51" duration="50.50" routeLength="786.27" waitingTime="0.00" waitingCount="0" stopTime="0.00" timeLoss="2.83" rerouteNo="0" devices="tripinfo_f_6_0_MOTORCYCLE.0" vType="MOTORCYCLE" speedFactor="1.00" vaporized=""/>
    <tripinfo id="f_3_0_TRUCK.0" depart="6.00" departLane="933952934#0_0" departPos="7.20" departSpeed="16.42" departDelay="6.00" arrival="59.50" arrivalLane="26296778#2.51_0" arrivalPos="231.04" arrivalSpeed="16.52" duration="53.50" routeLength="732.00" waitingTime="0.00" waitingCount="0" stopTime="0.00" timeLoss="7.82" rerouteNo="0" devices="tripinfo_f_3_0_TRUCK.0" vType="TRUCK" speedFactor="1.00" vaporized=""/>
    <tripinfo id="f_6_0_CAR.0" depart="7.50" departLane="1076383725_1" departPos="5.10" departSpeed="16.18" departDelay="7.50" arrival="59.50" arrivalLane="1078018158_2" arrivalPos="293.94" arrivalSpeed="16.60" duration="52.00" routeLength="776.29" waitingTime="0.00" waitingCount="0" stopTime="0.00" timeLoss="4.79" rerouteNo="0" devices="tripinfo_f_6_0_CAR.0" vType="CAR" speedFactor="1.00" vaporized=""/>
    <tripinfo id="f_1_0_CAR.4" depart="18.00" departLane="780157087#0_1" departPos="5.10" departSpeed="12.66" departDelay="4.58" arrival="60.00" arrivalLane="780157088.34_1" arrivalPos="200.15" arrivalSpeed="16.57" duration="42.00" routeLength="427.87" waitingTime="0.00" waitingCount="0" stopTime="0.00" timeLoss="14.91" rerouteNo="0" devices="tripinfo_f_1_0_CAR.4" vType="CAR" speedFactor="1.00" vaporized=""/>
    <tripinfo id="f_2_0_TAXI.0" depart="11.00" departLane="780157087#0_0" departPos="5.10" departSpeed="16.33" departDelay="11.00" arrival="60.50" arrivalLane="1078018158_0" arrivalPos="293.94" arrivalSpeed="16.65" duration="49.50" routeLength="735.67" waitingTime="0.00" waitingCount="0" stopTime="0.00" timeLoss="5.28" rerouteNo="0" devices="tripinfo_f_2_0_TAXI.0" vType="TAXI" speedFactor="1.00" vaporized=""/>
    <tripinfo id="f_0_0_MOTORCYCLE.1" depart="14.00" departLane="780157087#0_0" departPos="2.30" departSpeed="16.27" departDelay="5.89" arrival="60.50" arrivalLane="4601641#0_3" arrivalPos="380.76" arrivalSpeed="16.39" duration="46.50" routeLength="739.53" waitingTime="0.00" waitingCount="0" stopTime="0.00" timeLoss="1.55" rerouteNo="0" devices="tripinfo_f_0_0_MOTORCYCLE.1" vType="MOTORCYCLE" speedFactor="1.00" vaporized=""/>
    <tripinfo id="f_6_0_TAXI.0" depart="8.50" departLane="1076383725_1" departPos="5.10" departSpeed="16.37" departDelay="8.50" arrival="61.00" arrivalLane="1078018158_2" arrivalPos="293.94" arrivalSpeed="16.56" duration="52.50" routeLength="776.29" waitingTime="0.00" waitingCount="0" stopTime="0.00" timeLoss="4.93" rerouteNo="0" devices="tripinfo_f_6_0_TAXI.0" vType="TAXI" speedFactor="1.00" vaporized=""/>
    <tripinfo id="f_6_0_TRUCK.0" depart="11.00" departLane="1076383725_0" departPos="7.20" departSpeed="16.24" departDelay="11.00" arrival="61.50" arrivalLane="1078018158_1" arrivalPos="293.94" arrivalSpeed="16.57" duration="50.50" routeLength="781.37" waitingTime="0.00" waitingCount="0" stopTime="0.00" timeLoss="2.78" rerouteNo="0" devices="tripinfo_f_6_0_TRUCK.0" vType="TRUCK" speedFactor="1.00" vaporized=""/>
    <tripinfo id="f_1_0_CAR.5" depart="19.00" departLane="780157087#0_1" departPos="5.10" departSpeed="12.60" departDelay="2.22" arrival="62.00" arrivalLane="780157088.34_1" arrivalPos="200.15" arrivalSpeed="16.38" duration="43.00" routeLength="427.87" waitingTime="0.00" waitingCount="0" stopTime="0.00" timeLoss="15.59" rerouteNo="0" devices="tripinfo_f_1_0_CAR.5" vType="CAR" speedFactor="1.00" vaporized=""/>
    <tripinfo id="f_0_0_CAR.2" depart="16.00" departLane="780157087#0_0" departPos="5.10" departSpeed="16.29" departDelay="7.57" arrival="62.50" arrivalLane="4601641#0_2" arrivalPos="380.76" arrivalSpeed="16.53" duration="46.50" routeLength="742.43" waitingTime="0.00" waitingCount="0" stopTime="0.00" timeLoss="1.06" rerouteNo="0" devices="tripinfo_f_0_0_CAR.2" vType="CAR" speedFactor="1.00" vaporized=""/>
    <tripinfo id="f_6_0_TRAILER.0" depart="11.00" departLane="1076383725_1" departPos="16.60" departSpeed="16.36" departDelay="11.00" arrival="63.00" arrivalLane="1078018158_2" arrivalPos="293.94" arrivalSpeed="16.59" duration="52.00" routeLength="764.79" waitingTime="0.00" waitingCount="0" stopTime="0.00" timeLoss="5.26" rerouteNo="0" devices="tripinfo_f_6_0_TRAILER.0" vType="TRAILER" speedFactor="1.00" vaporized=""/>
    <tripinfo id="f_6_0_CAR.1" depart="12.50" departLane="1076383725_0" departPos="5.10" departSpeed="16.25" departDelay="7.76" arrival="63.00" arrivalLane="1078018158_1" arrivalPos="293.94" arrivalSpeed="16.42" duration="50.50" routeLength="783.47" waitingTime="0.00" waitingCount="0" stopTime="0.00" timeLoss="2.84" rerouteNo="0" devices="tripinfo_f_6_0_CAR.1" vType="CAR" speedFactor="1.00" vaporized=""/>
    <tripinfo id="f_2_0_TRUCK.0" depart="12.50" departLane="780157087#0_0" departPos="7.20" departSpeed="16.27" departDelay="12.50" arrival="63.50" arrivalLane="1078018158_0" arrivalPos="293.94" arrivalSpeed="16.56" duration="51.00" routeLength="733.57" waitingTime="0.00" waitingCount="0" stopTime="0.00" timeLoss="6.64" rerouteNo="0" devices="tripinfo_f_2_0_TRUCK.0" vType="TRUCK" speedFactor="1.00" vaporized=""/>
    <tripinfo id="f_0_0_MOTORCYCLE.2" depart="17.50" departLane="780157087#0_0" departPos="2.30" departSpeed="16.21" departDelay="1.28" arrival="64.00" arrivalLane="4601641#0_2" arrivalPos="380.76" arrivalSpeed="16.38" duration="46.50" routeLength="745.23" waitingTime="0.00" waitingCount="0" stopTime="0.00" timeLoss="1.60" rerouteNo="0" devices="tripinfo_f_0_0_MOTORCYCLE.2" vType="MOTORCYCLE" speedFactor="1.00" vaporized=""/>
    <tripinfo id="f_1_0_CAR.6" depart="20.50" departLane="780157087#0_1" departPos="5.10" departSpeed="11.58" departDelay="0.37" arrival="64.00" arrivalLane="780157088.34_1" arrivalPos="200.15" arrivalSpeed="16.46" duration="43.50" routeLength="427.87" waitingTime="0.00" waitingCount="0" stopTime="0.00" timeLoss="16.27" rerouteNo="0" devices="tripinfo_f_1_0_CAR.6" vType="CAR" speedFactor="1.00" vaporized=""/>
    <tripinfo id="f_6_0_MOTORCYCLE.3" depart="14.00" departLane="1076383725_0" departPos="2.30" departSpeed="16.00" departDelay="6.00" arrival="64.50" arrivalLane="1078018158_1" arrivalPos="293.94" arrivalSpeed="16.14" duration="50.50" routeLength="786.27" waitingTime="0.00" waitingCount="0" stopTime="0.00" timeLoss="2.82" rerouteNo="0" devices="tripinfo_f_6_0_MOTORCYCLE.3" vType="MOTORCYCLE" speedFactor="1.00" vaporized=""/>
    <tripinfo id="f_6_0_MOTORCYCLE.1" depart="12.00" departLane="1076383725_1" departPos="2.30" departSpeed="16.38" departDelay="9.33" arrival="65.50" arrivalLane="1078018158_2" arrivalPos="293.94" arrivalSpeed="16.12" duration="53.50" routeLength="779.09" waitingTime="0.00" waitingCount="0" stopTime="0.00" timeLoss="5.71" rerouteNo="0" devices="tripinfo_f_6_0_MOTORCYCLE.1" vType="MOTORCYCLE" speedFactor="1.00" vaporized=""/>
    <tripinfo id="f_6_0_MOTORCYCLE.4" depart="15.50" departLane="1076383725_0" departPos="2.30" departSpeed="16.19" departDelay="4.83" arrival="66.00" arrivalLane="1078018158_1" arrivalPos="293.94" arrivalSpeed="16.34" duration="50.50" routeLength="786.27" waitingTime="0.00" waitingCount="0" stopTime="0.00" timeLoss="2.65" rerouteNo="0" devices="tripinfo_f_6_0_MOTORCYCLE.4" vType="MOTORCYCLE" speedFactor="1.00" vaporized=""/>
    <tripinfo id="f_0_0_CAR.4" depart="19.50" departLane="780157087#0_0" departPos="5.10" departSpeed="16.21" departDelay="2.64" arrival="66.00" arrivalLane="4601641#0_3" arrivalPos="380.76" arrivalSpeed="16.62" duration="46.50" routeLength="736.73" waitingTime="0.00" waitingCount="0" stopTime="0.00" timeLoss="1.18" rerouteNo="0" devices="tripinfo_f_0_0_CAR.4" vType="CAR" speedFactor="1.00" vaporized=""/>
    <tripinfo id="f_1_0_CAR.7" depart="23.50" departLane="780157087#0_1" departPos="5.10" departSpeed="10.68" departDelay="0.01" arrival="66.00" arrivalLane="780157088.34_1" arrivalPos="200.15" arrivalSpeed="16.66" duration="42.50" routeLength="427.87" waitingTime="0.00" waitingCount="0" stopTime="0.00" timeLoss="15.32" rerouteNo="0" devices="tripinfo_f_1_0_CAR.7" vType="CAR" speedFactor="1.00" vaporized=""/>
    <tripinfo id="f_6_0_MOTORCYCLE.2" depart="13.00" departLane="1076383725_1" departPos="2.30" departSpeed="15.84" departDelay="7.67" arrival="67.00" arrivalLane="1078018158_2" arrivalPos="293.94" arrivalSpeed="16.19" duration="54.00" routeLength="779.09" waitingTime="0.00" waitingCount="0" stopTime="0.00" timeLoss="6.02" rerouteNo="0" devices="tripinfo_f_6_0_MOTORCYCLE.2" vType="MOTORCYCLE" speedFactor="1.00" vaporized=""/>
    <tripinfo id="f_0_0_CAR.5" depart="21.50" departLane="780157087#0_0" departPos="5.10" departSpeed="16.10" departDelay="0.42" arrival="67.50" arrivalLane="4601641#0_2" arrivalPos="380.76" arrivalSpeed="16.49" duration="46.00" routeLength="742.43" waitingTime="0.00" waitingCount="0" stopTime="0.00" timeLoss="0.91" rerouteNo="0" devices="tripinfo_f_0_0_CAR.5" vType="CAR" speedFactor="1.00" vaporized=""/>
    <tripinfo id="f_6_0_CAR.3" depart="17.50" departLane="1076383725_0" departPos="5.10" departSpeed="16.17" departDelay="3.27" arrival="68.00" arrivalLane="1078018158_1" arrivalPos="293.94" arrivalSpeed="16.58" duration="50.50" routeLength="783.47" waitingTime="0.00" waitingCount="0" stopTime="0.00" timeLoss="2.74" rerouteNo="0" devices="tripinfo_f_6_0_CAR.3" vType="CAR" speedFactor="1.00" vaporized=""/>
    <tripinfo id="f_5_0_MOTORCYCLE.1" depart="22.50" departLane="1076383725_0" departPos="2.30" departSpeed="15.60" departDelay="0.81" arrival="68.50" arrivalLane="4601641#0_0" arrivalPos="380.76" arrivalSpeed="16.43" duration="46.00" routeLength="738.20" waitingTime="0.00" waitingCount="0" stopTime="0.00" timeLoss="1.59" rerouteNo="0" devices="tripinfo_f_5_0_MOTORCYCLE.1" vType="MOTORCYCLE" speedFactor="1.00" vaporized=""/>
    <tripinfo id="f_6_0_CAR.2" depart="15.50" departLane="1076383725_1" departPos="5.10" departSpeed="14.49" departDelay="6.01" arrival="69.00" arrivalLane="1078018158_2" arrivalPos="293.94" arrivalSpeed="16.65" duration="53.50" routeLength="776.29" waitingTime="0.00" waitingCount="0" stopTime="0.00" timeLoss="6.25" rerouteNo="0" devices="tripinfo_f_6_0_CAR.2" vType="CAR" speedFactor="1.00" vaporized=""/>
    <tripinfo id="f_0_0_CAR.3" depart="16.50" departLane="780157087#0_1" departPos="5.10" departSpeed="13.69" departDelay="3.85" arrival="69.00" arrivalLane="4601641#0_2" arrivalPos="380.76" arrivalSpeed="16.53" duration="52.50" routeLength="742.43" waitingTime="0.00" waitingCount="0" stopTime="0.00" timeLoss="7.56" rerouteNo="0" devices="tripinfo_f_0_0_CAR.3" vType="CAR" speedFactor="1.00" vaporized=""/>
    <tripinfo id="f_1_0_MOTORCYCLE.1" depart="27.00" departLane="780157087#0_1" departPos="2.30" departSpeed="10.00" departDelay="0.33" arrival="69.00" arrivalLane="780157088.34_1" arrivalPos="200.15" arrivalSpeed="16.15" duration="42.00" routeLength="430.67" waitingTime="0.00" waitingCount="0" stopTime="0.00" timeLoss="14.13" rerouteNo="0" devices="tripinfo_f_1_0_MOTORCYCLE.1" vType="MOTORCYCLE" speedFactor="1.00" vaporized=""/>
    <tripinfo id="f_6_0_MOTORCYCLE.7" depart="19.00" departLane="1076383725_0" departPos="2.30" departSpeed="16.04" departDelay="0.33" arrival="69.50" arrivalLane="1078018158_1" arrivalPos="293.94" arrivalSpeed="16.43" duration="50.50" routeLength="786.27" waitingTime="0.00" waitingCount="0" stopTime="0.00" timeLoss="2.55" rerouteNo="0" devices="tripinfo_f_6_0_MOTORCYCLE.7" vType="MOTORCYCLE" speedFactor="1.00" vaporized=""/>
    <tripinfo id="f_6_0_MOTORCYCLE.5" depart="16.50" departLane="1076383725_1" departPos="2.30" departSpeed="13.79" departDelay="3.16" arrival="70.50" arrivalLane="1078018158_2" arrivalPos="293.94" arrivalSpeed="16.16" duration="54.00" routeLength="779.09" waitingTime="0.00" waitingCount="0" stopTime="0.00" timeLoss="6.50" rerouteNo="0" devices="tripinfo_f_6_0_MOTORCYCLE.5" vType="MOTORCYCLE" speedFactor="1.00" vaporized=""/>
    <tripinfo id="f_6_0_MOTORCYCLE.8" depart="21.50" departLane="1076383725_0" departPos="2.30" departSpeed="15.77" departDelay="0.16" arrival="70.50" arrivalLane="1078018158_1" arrivalPos="293.94" arrivalSpeed="16.24" duration="49.00" routeLength="786.27" waitingTime="0.00" waitingCount="0" stopTime="0.00" timeLoss="1.26" rerouteNo="0" devices="tripinfo_f_6_0_MOTORCYCLE.8" vType="MOTORCYCLE" speedFactor="1.00" vaporized=""/>
    <tripinfo id="f_0_0_MOTORCYCLE.3" depart="24.50" departLane="780157087#0_0" departPos="2.30" departSpeed="16.14" departDelay="0.18" arrival="71.00" arrivalLane="4601641#0_2" arrivalPos="380.76" arrivalSpeed="16.51" duration="46.50" routeLength="745.23" waitingTime="0.00" waitingCount="0" stopTime="0.00" timeLoss="1.26" rerouteNo="0" devices="tripinfo_f_0_0_MOTORCYCLE.3" vType="MOTORCYCLE" speedFactor="1.00" vaporized=""/>
    <tripinfo id="f_6_0_MOTORCYCLE.6" depart="17.50" departLane="1076383725_1" departPos="2.30" departSpeed="13.78" departDelay="1.50" arrival="71.50" arrivalLane="1078018158_2" arrivalPos="293.94" arrivalSpeed="15.95" duration="54.00" routeLength="779.09" waitingTime="0.00" waitingCount="0" stopTime="0.00" timeLoss="6.58" rerouteNo="0" devices="tripinfo_f_6_0_MOTORCYCLE.6" vType="MOTORCYCLE" speedFactor="1.00" vaporized=""/>
    <tripinfo id="f_1_0_CAR.8" depart="28.50" departLane="780157087#0_1" departPos="5.10" departSpeed="10.12" departDelay="1.66" arrival="71.50" arrivalLane="780157088.34_1" arrivalPos="200.15" arrivalSpeed="16.54" duration="43.00" routeLength="427.87" waitingTime="0.00" waitingCount="0" stopTime="0.00" timeLoss="15.96" rerouteNo="0" devices="tripinfo_f_1_0_CAR.8" vType="CAR" speedFactor="1.00" vaporized=""/>
    <tripinfo id="f_0_0_CAR.1" depart="13.00" departLane="780157087#0_1" departPos="5.10" departSpeed="16.38" departDelay="8.78" arrival="72.00" arrivalLane="4601641#0_3" arrivalPos="380.76" arrivalSpeed="16.53" duration="59.00" routeLength="736.73" waitingTime="0.00" waitingCount="0" stopTime="0.00" timeLoss="13.96" rerouteNo="0" devices="tripinfo_f_0_0_CAR.1" vType="CAR" speedFactor="1.00" vaporized=""/>
    <tripinfo id="f_6_0_MOTORCYCLE.9" depart="24.00" departLane="1076383725_0" departPos="2.30" departSpeed="15.76" departDelay="0.00" arrival="73.50" arrivalLane="1078018158_1" arrivalPos="293.94" arrivalSpeed="16.43" duration="49.50" routeLength="786.27" waitingTime="0.00" waitingCount="0" stopTime="0.00" timeLoss="1.42" rerouteNo="0" devices="tripinfo_f_6_0_MOTORCYCLE.9" vType="MOTORCYCLE" speedFactor="1.00" vaporized=""/>
    <tripinfo id="f_2_0_CAR.1" depart="27.00" departLane="780157087#0_0" departPos="5.10" departSpeed="15.94" departDelay="2.17" arrival="73.50" arrivalLane="1078018158_0" arrivalPos="293.94" arrivalSpeed="16.54" duration="46.50" routeLength="735.67" waitingTime="0.00" waitingCount="0" stopTime="0.00" timeLoss="2.45" rerouteNo="0" devices="tripinfo_f_2_0_CAR.1" vType="CAR" speedFactor="1.00" vaporized=""/>